! TOUCHSTONE file generated by CST MICROWAVE STUDIO
! Date and time: Wed May  4 10:48:37 2022
! Project name: Antenne_dipole.cst
! Parameters = {ls=100; ws=30; h=1.6; wl=0.2; i=0.5; l1=7.65306; e=0.035; L=40}
! Header version: 2018
! Port assignment regex: !\s*Touchstone port\s*([0-9]+)\s*=\s*(CST MWS port|CST DS port)\s*([0-9]+|Zmin|Zmax)\s*\(\"(.*)\"\)(\s*mode\s*([0-9]+))?.*
! Touchstone port assignment:
! Touchstone port 1 = CST MWS port 1 ("")
# GHz S MA R 50
0                      0.9999637              -0
0.004                  0.9999624      -0.1079646
0.008                  0.9999588      -0.2159228
0.012                  0.9999529      -0.3238684
0.016                  0.9999444      -0.4317951
0.02                   0.9999337      -0.5396966
0.024                  0.9999205       -0.647567
0.028                  0.9999051      -0.7553999
0.032                  0.9998875      -0.8631897
0.036                  0.9998676      -0.9709303
0.04                   0.9998456       -1.078616
0.044                  0.9998215       -1.186242
0.048                  0.9997954       -1.293802
0.052                  0.9997674       -1.401292
0.056                  0.9997375       -1.508706
0.06                   0.9997057        -1.61604
0.064                   0.999672       -1.723289
0.068                  0.9996369       -1.830449
0.072                  0.9996003       -1.937516
0.076                  0.9995623       -2.044487
0.08                   0.9995227       -2.151359
0.084                  0.9994821       -2.258128
0.088                  0.9994404       -2.364791
0.092                  0.9993974       -2.471347
0.096                  0.9993538       -2.577792
0.1                    0.9993093       -2.684126
0.104                  0.9992642       -2.790347
0.108                  0.9992185       -2.896455
0.112                  0.9991725       -3.002447
0.116                   0.999126       -3.108325
0.12                   0.9990795       -3.214089
0.124                  0.9990329       -3.319738
0.128                  0.9989865       -3.425274
0.132                  0.9989402       -3.530697
0.136                  0.9988943        -3.63601
0.14                   0.9988489       -3.741215
0.144                  0.9988039       -3.846314
0.148                  0.9987598       -3.951309
0.152                  0.9987164       -4.056204
0.156                  0.9986741       -4.161001
0.16                   0.9986329       -4.265706
0.164                  0.9985928       -4.370322
0.168                  0.9985537       -4.474853
0.172                  0.9985163       -4.579305
0.176                  0.9984803       -4.683682
0.18                    0.998446       -4.787989
0.184                  0.9984132       -4.892233
0.188                  0.9983824        -4.99642
0.192                  0.9983534       -5.100555
0.196                  0.9983264       -5.204646
0.2                    0.9983012       -5.308698
0.204                  0.9982782        -5.41272
0.208                  0.9982574       -5.516718
0.212                  0.9982388         -5.6207
0.216                  0.9982225       -5.724672
0.22                   0.9982084       -5.828644
0.224                  0.9981969       -5.932622
0.228                  0.9981876       -6.036614
0.232                  0.9981807       -6.140631
0.236                  0.9981763       -6.244677
0.24                   0.9981743       -6.348763
0.244                  0.9981748       -6.452896
0.248                  0.9981778       -6.557086
0.252                  0.9981832       -6.661339
0.256                  0.9981911       -6.765664
0.26                   0.9982015        -6.87007
0.264                  0.9982142       -6.974564
0.268                  0.9982292       -7.079157
0.272                  0.9982467       -7.183853
0.276                  0.9982664       -7.288663
0.28                   0.9982884       -7.393593
0.284                  0.9983125       -7.498651
0.288                  0.9983389       -7.603846
0.292                  0.9983671       -7.709182
0.296                  0.9983974       -7.814671
0.3                    0.9984296       -7.920315
0.304                  0.9984636       -8.026123
0.308                  0.9984993       -8.132101
0.312                  0.9985368       -8.238255
0.316                  0.9985756        -8.34459
0.32                   0.9986159       -8.451114
0.324                  0.9986576       -8.557831
0.328                  0.9987005       -8.664746
0.332                  0.9987443       -8.771861
0.336                  0.9987892       -8.879184
0.34                    0.998835       -8.986716
0.344                  0.9988815       -9.094463
0.348                  0.9989285       -9.202427
0.352                  0.9989761        -9.31061
0.356                  0.9990241       -9.419015
0.36                   0.9990721       -9.527646
0.364                  0.9991202       -9.636502
0.368                  0.9991683       -9.745587
0.372                  0.9992162       -9.854897
0.376                  0.9992638       -9.964437
0.38                   0.9993109       -10.07421
0.384                  0.9993574        -10.1842
0.388                  0.9994033       -10.29443
0.392                  0.9994481       -10.40488
0.396                  0.9994922       -10.51556
0.4                    0.9995351       -10.62646
0.404                  0.9995767       -10.73758
0.408                  0.9996171       -10.84893
0.412                  0.9996558       -10.96048
0.416                  0.9996931       -11.07225
0.42                   0.9997286       -11.18423
0.424                  0.9997624       -11.29642
0.428                  0.9997942       -11.40881
0.432                  0.9998242       -11.52139
0.436                   0.999852       -11.63417
0.44                   0.9998777       -11.74714
0.444                  0.9999011       -11.86028
0.448                  0.9999222       -11.97361
0.452                  0.9999409        -12.0871
0.456                  0.9999571       -12.20076
0.46                   0.9999707       -12.31458
0.464                  0.9999819       -12.42856
0.468                  0.9999904       -12.54268
0.472                  0.9999963       -12.65694
0.476                  0.9999995       -12.77134
0.48                           1       -12.88586
0.484                  0.9999979        -13.0005
0.488                  0.9999928       -13.11526
0.492                  0.9999852       -13.23012
0.496                  0.9999747       -13.34509
0.5                    0.9999617       -13.46015
0.504                  0.9999457        -13.5753
0.508                  0.9999272       -13.69052
0.512                  0.9999061       -13.80582
0.516                  0.9998823       -13.92119
0.52                   0.9998559       -14.03662
0.524                  0.9998272        -14.1521
0.528                  0.9997958       -14.26763
0.532                  0.9997622       -14.38321
0.536                  0.9997263       -14.49882
0.54                    0.999688       -14.61447
0.544                  0.9996476       -14.73014
0.548                  0.9996053       -14.84583
0.552                   0.999561       -14.96154
0.556                  0.9995147       -15.07727
0.56                   0.9994668         -15.193
0.564                  0.9994171       -15.30874
0.568                   0.999366       -15.42447
0.572                  0.9993135       -15.54021
0.576                  0.9992596       -15.65594
0.58                   0.9992046       -15.77167
0.584                  0.9991486       -15.88739
0.588                  0.9990917        -16.0031
0.592                  0.9990341        -16.1188
0.596                  0.9989759       -16.23448
0.6                    0.9989171       -16.35015
0.604                  0.9988581       -16.46581
0.608                  0.9987987       -16.58146
0.612                  0.9987395        -16.6971
0.616                  0.9986802       -16.81273
0.62                   0.9986214       -16.92836
0.624                  0.9985628       -17.04397
0.628                  0.9985048       -17.15959
0.632                  0.9984474       -17.27521
0.636                  0.9983909       -17.39083
0.64                   0.9983354       -17.50646
0.644                  0.9982808       -17.62211
0.648                  0.9982275       -17.73777
0.652                  0.9981756       -17.85346
0.656                  0.9981252       -17.96917
0.66                   0.9980764       -18.08493
0.664                  0.9980292       -18.20072
0.668                   0.997984       -18.31656
0.672                  0.9979407       -18.43246
0.676                  0.9978995       -18.54842
0.68                   0.9978604       -18.66446
0.684                  0.9978235       -18.78058
0.688                  0.9977891       -18.89678
0.692                   0.997757       -19.01309
0.696                  0.9977274        -19.1295
0.7                    0.9977003       -19.24603
0.704                   0.997676       -19.36268
0.708                  0.9976544       -19.47947
0.712                  0.9976353       -19.59641
0.716                  0.9976192       -19.71349
0.72                   0.9976058       -19.83076
0.724                  0.9975952       -19.94819
0.728                  0.9975874       -20.06581
0.732                  0.9975826       -20.18364
0.736                  0.9975804       -20.30167
0.74                   0.9975812       -20.41992
0.744                  0.9975849       -20.53841
0.748                  0.9975913       -20.65713
0.752                  0.9976005       -20.77611
0.756                  0.9976123       -20.89535
0.76                   0.9976269       -21.01486
0.764                  0.9976441       -21.13466
0.768                  0.9976638       -21.25476
0.772                  0.9976861       -21.37515
0.776                  0.9977106       -21.49587
0.78                   0.9977376        -21.6169
0.784                  0.9977667       -21.73827
0.788                   0.997798       -21.85999
0.792                  0.9978312       -21.98206
0.796                  0.9978663       -22.10449
0.8                    0.9979033       -22.22728
0.804                  0.9979418       -22.35046
0.808                  0.9979818       -22.47402
0.812                  0.9980232       -22.59798
0.816                  0.9980659       -22.72233
0.82                   0.9981096       -22.84709
0.824                  0.9981542       -22.97227
0.828                  0.9981996       -23.09786
0.832                  0.9982457       -23.22388
0.836                   0.998292       -23.35033
0.84                   0.9983387       -23.47721
0.844                  0.9983855       -23.60453
0.848                  0.9984321       -23.73229
0.852                  0.9984786        -23.8605
0.856                  0.9985247       -23.98915
0.86                   0.9985701       -24.11825
0.864                  0.9986147       -24.24781
0.868                  0.9986584       -24.37781
0.872                   0.998701       -24.50827
0.876                  0.9987423       -24.63919
0.88                   0.9987821       -24.77055
0.884                  0.9988202       -24.90237
0.888                  0.9988565       -25.03465
0.892                  0.9988908       -25.16737
0.896                  0.9989231       -25.30053
0.9                    0.9989529       -25.43414
0.904                  0.9989804        -25.5682
0.908                  0.9990052       -25.70269
0.912                  0.9990272       -25.83763
0.916                  0.9990464       -25.97298
0.92                   0.9990626       -26.10877
0.924                  0.9990754       -26.24498
0.928                  0.9990851        -26.3816
0.932                  0.9990915       -26.51863
0.936                  0.9990942       -26.65607
0.94                   0.9990933       -26.79391
0.944                  0.9990887       -26.93213
0.948                  0.9990804       -27.07074
0.952                  0.9990682       -27.20973
0.956                  0.9990521        -27.3491
0.96                   0.9990319       -27.48882
0.964                  0.9990077       -27.62889
0.968                  0.9989794       -27.76935
0.972                  0.9989468       -27.91011
0.976                  0.9989102       -28.05122
0.98                   0.9988694       -28.19263
0.984                  0.9988244       -28.33437
0.988                  0.9987753       -28.47644
0.992                  0.9987219       -28.61881
0.996                  0.9986644       -28.76145
1                      0.9986028       -28.90439
1.004                  0.9985371       -29.04761
1.008                  0.9984674        -29.1911
1.012                  0.9983937       -29.33483
1.016                  0.9983161       -29.47884
1.02                   0.9982347       -29.62312
1.024                  0.9981495       -29.76765
1.028                  0.9980607       -29.91239
1.032                  0.9979684       -30.05736
1.036                  0.9978726       -30.20254
1.04                   0.9977735       -30.34796
1.044                  0.9976713       -30.49361
1.048                  0.9975659       -30.63948
1.052                  0.9974577       -30.78554
1.056                  0.9973468       -30.93179
1.06                   0.9972332       -31.07825
1.064                  0.9971171       -31.22491
1.068                  0.9969987       -31.37179
1.072                  0.9968784       -31.51885
1.076                   0.996756       -31.66611
1.08                   0.9966319       -31.81356
1.084                  0.9965062        -31.9612
1.088                  0.9963791       -32.10904
1.092                  0.9962508       -32.25709
1.096                  0.9961216        -32.4053
1.1                    0.9959914       -32.55373
1.104                  0.9958608       -32.70239
1.108                  0.9957297       -32.85126
1.112                  0.9955984       -33.00029
1.116                   0.995467        -33.1496
1.12                   0.9953358        -33.2991
1.124                   0.995205       -33.44884
1.128                  0.9950745       -33.59885
1.132                  0.9949451       -33.74909
1.136                  0.9948165       -33.89958
1.14                    0.994689       -34.05033
1.144                  0.9945627       -34.20137
1.148                   0.994438       -34.35269
1.152                  0.9943148       -34.50431
1.156                  0.9941933       -34.65625
1.16                    0.994074       -34.80849
1.164                  0.9939567       -34.96108
1.168                  0.9938415       -35.11402
1.172                  0.9937288       -35.26732
1.176                  0.9936185         -35.421
1.18                   0.9935108       -35.57508
1.184                  0.9934059       -35.72956
1.188                  0.9933038       -35.88447
1.192                  0.9932044       -36.03982
1.196                  0.9931081       -36.19564
1.2                    0.9930148       -36.35192
1.204                  0.9929246       -36.50871
1.208                  0.9928375       -36.66601
1.212                  0.9927536       -36.82384
1.216                  0.9926729       -36.98222
1.22                   0.9925954       -37.14116
1.224                  0.9925209       -37.30071
1.228                  0.9924498       -37.46085
1.232                  0.9923816       -37.62162
1.236                  0.9923166       -37.78304
1.24                   0.9922547       -37.94513
1.244                  0.9921956        -38.1079
1.248                  0.9921395       -38.27137
1.252                  0.9920861       -38.43558
1.256                  0.9920356       -38.60053
1.26                   0.9919874       -38.76624
1.264                  0.9919417       -38.93274
1.268                  0.9918984       -39.10004
1.272                  0.9918572       -39.26816
1.276                  0.9918178       -39.43713
1.28                   0.9917803       -39.60695
1.284                  0.9917444       -39.77765
1.288                  0.9917099       -39.94924
1.292                  0.9916765       -40.12174
1.296                  0.9916441       -40.29517
1.3                    0.9916122       -40.46955
1.304                   0.991581        -40.6449
1.308                  0.9915501       -40.82121
1.312                   0.991519       -40.99852
1.316                  0.9914875       -41.17684
1.32                   0.9914556       -41.35618
1.324                  0.9914227       -41.53655
1.328                  0.9913887       -41.71796
1.332                  0.9913531       -41.90043
1.336                  0.9913159       -42.08397
1.34                   0.9912764        -42.2686
1.344                  0.9912347       -42.45432
1.348                  0.9911903       -42.64114
1.352                  0.9911426       -42.82906
1.356                  0.9910918       -43.01811
1.36                   0.9910373       -43.20827
1.364                  0.9909787       -43.39957
1.368                  0.9909159       -43.59201
1.372                  0.9908485       -43.78559
1.376                  0.9907759       -43.98032
1.38                   0.9906982        -44.1762
1.384                  0.9906148       -44.37323
1.388                  0.9905255       -44.57143
1.392                  0.9904298       -44.77079
1.396                  0.9903278        -44.9713
1.4                    0.9902188       -45.17298
1.404                  0.9901027       -45.37582
1.408                  0.9899792       -45.57983
1.412                   0.989848       -45.78498
1.416                  0.9897087       -45.99131
1.42                   0.9895612       -46.19879
1.424                  0.9894051       -46.40742
1.428                  0.9892403       -46.61721
1.432                  0.9890663       -46.82815
1.436                  0.9888832       -47.04023
1.44                   0.9886907       -47.25344
1.444                  0.9884885        -47.4678
1.448                  0.9882764       -47.68329
1.452                  0.9880542        -47.8999
1.456                  0.9878217       -48.11764
1.46                   0.9875789       -48.33649
1.464                  0.9873256       -48.55644
1.468                  0.9870615        -48.7775
1.472                  0.9867869       -48.99965
1.476                  0.9865012        -49.2229
1.48                   0.9862045       -49.44723
1.484                  0.9858969       -49.67264
1.488                   0.985578       -49.89913
1.492                   0.985248       -50.12668
1.496                  0.9849067        -50.3553
1.5                    0.9845543       -50.58498
1.504                  0.9841905       -50.81571
1.508                  0.9838156       -51.04749
1.512                  0.9834297        -51.2803
1.516                  0.9830323       -51.51417
1.52                   0.9826238       -51.74907
1.524                  0.9822044       -51.98501
1.528                   0.981774       -52.22198
1.532                  0.9813326       -52.45999
1.536                  0.9808805       -52.69902
1.54                   0.9804177       -52.93908
1.544                  0.9799444       -53.18019
1.548                  0.9794604       -53.42233
1.552                  0.9789665        -53.6655
1.556                  0.9784623       -53.90971
1.56                    0.977948       -54.15498
1.564                   0.977424       -54.40129
1.568                  0.9768907       -54.64865
1.572                  0.9763475       -54.89711
1.576                  0.9757952       -55.14661
1.58                    0.975234       -55.39721
1.584                  0.9746639       -55.64891
1.588                  0.9740851       -55.90171
1.592                   0.973498       -56.15564
1.596                  0.9729025        -56.4107
1.6                    0.9722991       -56.66693
1.604                   0.971688       -56.92432
1.608                  0.9710691       -57.18291
1.612                  0.9704429       -57.44272
1.616                  0.9698096       -57.70375
1.62                   0.9691692       -57.96605
1.624                  0.9685221       -58.22962
1.628                  0.9678685       -58.49451
1.632                  0.9672084       -58.76074
1.636                  0.9665421       -59.02833
1.64                   0.9658696       -59.29732
1.644                  0.9651912       -59.56775
1.648                   0.964507       -59.83963
1.652                  0.9638174       -60.11302
1.656                  0.9631219       -60.38795
1.66                   0.9624212       -60.66444
1.664                   0.961715       -60.94256
1.668                  0.9610035       -61.22233
1.672                  0.9602869       -61.50379
1.676                  0.9595649       -61.78699
1.68                   0.9588376         -62.072
1.684                  0.9581053       -62.35883
1.688                  0.9573676       -62.64754
1.692                  0.9566245       -62.93818
1.696                  0.9558762        -63.2308
1.7                    0.9551221       -63.52545
1.704                  0.9543625        -63.8222
1.708                   0.953597       -64.12107
1.712                  0.9528256       -64.42214
1.716                  0.9520479       -64.72546
1.72                   0.9512638       -65.03109
1.724                  0.9504729       -65.33907
1.728                  0.9496749       -65.64949
1.732                  0.9488696       -65.96238
1.736                  0.9480565       -66.27781
1.74                   0.9472353       -66.59585
1.744                  0.9464056       -66.91653
1.748                  0.9455668       -67.23996
1.752                  0.9447185       -67.56615
1.756                  0.9438604       -67.89521
1.76                   0.9429914       -68.22718
1.764                  0.9421115        -68.5621
1.768                  0.9412197       -68.90009
1.772                  0.9403155       -69.24116
1.776                  0.9393982       -69.58539
1.78                   0.9384671       -69.93285
1.784                  0.9375215       -70.28361
1.788                  0.9365605       -70.63773
1.792                  0.9355834       -70.99526
1.796                  0.9345894       -71.35628
1.8                    0.9335775       -71.72083
1.804                   0.932547         -72.089
1.808                  0.9314969       -72.46083
1.812                   0.930426       -72.83641
1.816                  0.9293338       -73.21577
1.82                    0.928219       -73.59899
1.824                  0.9270807       -73.98612
1.828                  0.9259178       -74.37722
1.832                  0.9247291       -74.77236
1.836                  0.9235137       -75.17159
1.84                   0.9222704       -75.57496
1.844                  0.9209981       -75.98256
1.848                  0.9196957        -76.3944
1.852                   0.918362       -76.81057
1.856                  0.9169958       -77.23112
1.86                   0.9155958       -77.65608
1.864                   0.914161       -78.08552
1.868                  0.9126899       -78.51951
1.872                  0.9111815       -78.95806
1.876                  0.9096344       -79.40127
1.88                   0.9080476       -79.84916
1.884                  0.9064196       -80.30175
1.888                  0.9047491       -80.75915
1.892                  0.9030351       -81.22137
1.896                  0.9012761       -81.68847
1.9                    0.8994708       -82.16046
1.904                  0.8976181       -82.63744
1.908                  0.8957167       -83.11942
1.912                  0.8937652       -83.60646
1.916                  0.8917625       -84.09857
1.92                   0.8897073       -84.59584
1.924                  0.8875983       -85.09827
1.928                  0.8854342       -85.60591
1.932                  0.8832141        -86.1188
1.936                  0.8809364         -86.637
1.94                   0.8786002       -87.16052
1.944                  0.8762041       -87.68941
1.948                  0.8737471        -88.2237
1.952                   0.871228       -88.76345
1.956                  0.8686457       -89.30869
1.96                   0.8659991       -89.85944
1.964                   0.863287       -90.41574
1.968                  0.8605087       -90.97764
1.972                  0.8576628       -91.54517
1.976                  0.8547484       -92.11837
1.98                   0.8517646       -92.69727
1.984                  0.8487106       -93.28192
1.988                  0.8455853       -93.87235
1.992                  0.8423878        -94.4686
1.996                  0.8391175        -95.0707
2                      0.8357733       -95.67869
2.004                  0.8323547       -96.29262
2.008                  0.8288609       -96.91253
2.012                  0.8252911       -97.53847
2.016                  0.8216448       -98.17045
2.02                   0.8179214       -98.80856
2.024                  0.8141203       -99.45281
2.028                   0.810241       -100.1033
2.032                   0.806283         -100.76
2.036                  0.8022459       -101.4229
2.04                   0.7981294       -102.0923
2.044                  0.7939331        -102.768
2.048                  0.7896567       -103.4503
2.052                  0.7853001        -104.139
2.056                   0.780863       -104.8343
2.06                   0.7763454       -105.5363
2.064                  0.7717471       -106.2449
2.068                  0.7670681       -106.9604
2.072                  0.7623089       -107.6827
2.076                  0.7574688       -108.4119
2.08                   0.7525486       -109.1481
2.084                  0.7475483       -109.8915
2.088                  0.7424681        -110.642
2.092                  0.7373084       -111.3998
2.096                  0.7320697       -112.1649
2.1                    0.7267523       -112.9376
2.104                  0.7213569       -113.7178
2.108                  0.7158839       -114.5057
2.112                  0.7103341       -115.3014
2.116                   0.704708       -116.1051
2.12                   0.6990067       -116.9168
2.124                  0.6932307       -117.7368
2.128                  0.6873812        -118.565
2.132                  0.6814591       -119.4019
2.136                  0.6754654       -120.2473
2.14                   0.6694012       -121.1016
2.144                  0.6632679       -121.9649
2.148                  0.6570666       -122.8375
2.152                  0.6507985       -123.7194
2.156                  0.6444652       -124.6109
2.16                   0.6380684       -125.5123
2.164                  0.6316093       -126.4237
2.168                  0.6250897       -127.3454
2.172                  0.6185112       -128.2777
2.176                   0.611876       -129.2208
2.18                   0.6051857       -130.1751
2.184                  0.5984423       -131.1407
2.188                  0.5916479       -132.1181
2.192                  0.5848047       -133.1075
2.196                  0.5779149       -134.1094
2.2                    0.5709812        -135.124
2.204                  0.5640054       -136.1519
2.208                  0.5569907       -137.1933
2.212                  0.5499392       -138.2487
2.216                  0.5428542       -139.3185
2.22                   0.5357381       -140.4034
2.224                  0.5285942       -141.5037
2.228                  0.5214256       -142.6199
2.232                  0.5142354       -143.7527
2.236                   0.507027       -144.9026
2.24                   0.4998039       -146.0702
2.244                  0.4925697       -147.2562
2.248                  0.4853283       -148.4613
2.252                  0.4780834       -149.6861
2.256                  0.4708393       -150.9315
2.26                   0.4636001       -152.1981
2.264                  0.4563703       -153.4869
2.268                  0.4491545       -154.7986
2.272                  0.4419574       -156.1342
2.276                   0.434784       -157.4946
2.28                   0.4276395       -158.8808
2.284                  0.4205293       -160.2937
2.288                   0.413459       -161.7345
2.292                  0.4064344       -163.2041
2.296                  0.3994615       -164.7038
2.3                    0.3925468       -166.2347
2.304                  0.3856968       -167.7979
2.308                  0.3789183       -169.3947
2.312                  0.3722185       -171.0263
2.316                  0.3656048       -172.6939
2.32                   0.3590849       -174.3988
2.324                  0.3526668       -176.1422
2.328                  0.3463587       -177.9253
2.332                  0.3401693       -179.7494
2.336                  0.3341073        178.3846
2.34                   0.3281819        176.4753
2.344                  0.3224025         174.522
2.348                  0.3167788        172.5236
2.352                  0.3113206        170.4795
2.356                   0.306038         168.389